  ==> Input File <==

--------------------------------------------------------------------------
# Any line starting with the # character is a comment line
#! Sample HF/cc-pVDZ H2O computation

memory 250 mb

molecule h2o {
   0 1
   H 0.00 0.00 0.80
   H 0.00 0.00 -0.80
}

set basis sto-3g
energy('fci')

--------------------------------------------------------------------------

    Molecular point group: d2h

    Geometry (in Angstrom), charge = 0, multiplicity = 1:

       Center              X                  Y                   Z
    ------------   -----------------  -----------------  -----------------
           H          0.000000000000     0.000000000000     0.800000000000
           H          0.000000000000     0.000000000000    -0.800000000000

  Charge       = 0
  Multiplicity = 1
  Basis Set: STO-3G
  Basis Set:

    Orbital Energies (a.u.)
    -----------------------

    Doubly Occupied:

       1Ag    -0.335296

  @RHF Final Energy:    -0.88173244795212

   => Energetics <=

    Nuclear Repulsion Energy =              0.3307357553687500
    One-Electron Energy =                  -1.7543437054633770
    Two-Electron Energy =                   0.5418755021425048
    DFT Exchange-Correlation Energy =       0.0000000000000000
    Empirical Dispersion Energy =           0.0000000000000000
    PCM Polarization Energy =               0.0000000000000000
    EFP Energy =                            0.0000000000000000
    Total Energy =                         -0.8817324479521222
